 13
 energy:  -40.462481001276331     
1      0.190092363   -0.828606657    0.973467162    0.063044040    0.067994911   -0.131329180  1
1     -0.330064031   -1.474713314    0.235469456    0.180105111   -0.571895697   -0.207705617  2
1      0.776998003   -1.468967273    0.162594924    0.176724089    0.351710570    0.584231270  3
1     -0.972007290   -0.817575110    0.813347580    1.002694787    0.255139093   -0.993784873  4
1     -0.372632986    0.061789931    0.600015801    0.375989392    0.733509519    1.117203030  5
1     -0.211968700    0.404035894   -0.418416104   -0.080110707   -0.037689737    0.836914400  6
1      0.072496226   -1.392662719   -0.768899082   -0.197448009    0.057310391   -0.527029531  7
1      0.738923906    0.132569180    0.604325434    0.218179085    0.082121261   -1.055030380  8
1     -0.781692831   -0.585032969   -0.304301295   -0.497486106   -0.508014907   -0.866260069  9
1      1.053114019   -0.861288074   -0.757005632    0.015182455   -0.218790192    0.895509396  10
1      0.107110157   -0.357725413   -1.140948385    0.058234765    0.336050430   -0.016800030  11
1      0.880606277    0.220661610   -0.523199482   -0.037010461   -0.375438637   -0.138133842  12
1      0.254749482   -0.554113581   -0.072817642   -1.278098441   -0.172007005    0.502215427  13
