13
ts: 11 energy:  -40.4626862182 connecting minima:2 1
 1 -0.49580341431341102       0.97081809720047896       0.37341428393206699     
 1  -1.0561165586604031      -0.47245030034569702      -0.37449783746929599     
 1 -0.63509643604830102      -0.66670775781629399       0.66219897224722502     
 1 -0.83642178463603800       0.59155936354314198      -0.64507703368827696     
 1  0.59636158974191400       0.80558700835169195       0.23843961936244301     
 1  0.25975283602565602       0.71540296586945495      -0.78971023572037002     
 1  -9.7433080485659004E-002  -1.0381280426042809      -0.31233048725326901     
 1   9.2545024674446003E-002  0.20016737720269201        1.0302106792521439     
 1 -0.18424967464368000      -0.24756756715313999       -1.0721752232720581     
 1  0.46705990530777303      -0.73516435209754005       0.56288324725063099     
 1  0.82832153270028297      -0.18917103116725101      -0.36543024542442698     
 1   1.2108515516656180        4.1719387201624998E-002  0.70259140999599501     
 1 -0.14977149132819800        2.3934851915116000E-002  -1.0517149112811999E-002
